AIM_analysis                                                            
SP        RM06                                                        def2TZVPP           
Number of atoms                            I                6
Info1-9                                    I   N=           9
          17          17           0           0           0         110
           1          18       -5402
Full Title                                 C   N=           1
AIM_analysis
Route                                      C   N=           3
#P M06/def2tzvpp pop=nboread gfinput
Charge                                     I                0
Multiplicity                               I                1
Number of electrons                        I              132
Number of alpha electrons                  I               66
Number of beta electrons                   I               66
Number of basis functions                  I              270
Number of independent functions            I              270
Number of point charges in /Mol/           I                0
Number of translation vectors              I                0
Atomic numbers                             I   N=           6
          13          13          13          31          31          31
Nuclear charges                            R   N=           6
  1.30000000E+01  1.30000000E+01  1.30000000E+01  3.10000000E+01  3.10000000E+01
  3.10000000E+01
Current cartesian coordinates              R   N=          18
  2.68358978E+00  2.11632522E+00  2.44860087E+00 -2.64840047E+00  2.13540649E+00
  2.45823814E+00  3.30837727E-02  4.26957660E+00 -9.17467239E-01  2.98541845E+00
 -4.91229833E-01 -1.66161171E+00 -3.00558703E+00 -4.57495452E-01 -1.65085168E+00
 -8.46206422E-03 -2.62472659E+00  1.63950103E+00
Number of symbols in /Mol/                 I                0
Force Field                                I                0
Atom Types                                 C   N=           6
                                                            
            
Int Atom Types                             I   N=           6
           0           0           0           0           0           0
MM charges                                 R   N=           6
  0.00000000E+00  0.00000000E+00  0.00000000E+00  0.00000000E+00  0.00000000E+00
  0.00000000E+00
Integer atomic weights                     I   N=           6
          27          27          27          69          69          69
Real atomic weights                        R   N=           6
  2.69815413E+01  2.69815413E+01  2.69815413E+01  6.89255809E+01  6.89255809E+01
  6.89255809E+01
Atom fragment info                         I   N=           6
           0           0           0           0           0           0
Atom residue num                           I   N=           6
           0           0           0           0           0           0
Nuclear spins                              I   N=           6
           5           5           5           3           3           3
Nuclear ZEff                               R   N=           6
 -1.15300000E+01 -1.15300000E+01 -1.15300000E+01 -2.54200000E+01 -2.54200000E+01
 -2.54200000E+01
Nuclear ZNuc                               R   N=           6
  1.30000000E+01  1.30000000E+01  1.30000000E+01  3.10000000E+01  3.10000000E+01
  3.10000000E+01
Nuclear QMom                               R   N=           6
  1.46600000E+01  1.46600000E+01  1.46600000E+01  1.71000000E+01  1.71000000E+01
  1.71000000E+01
Nuclear GFac                               R   N=           6
  3.64150400E+00  3.64150400E+00  3.64150400E+00  2.01659000E+00  2.01659000E+00
  2.01659000E+00
MicOpt                                     I   N=           6
          -1          -1          -1          -1          -1          -1
Number of residues                         I                0
Number of secondary structures             I                0
SymInf integers                            I   N=          26
           1           1           1           1           1           0
           0           0           0           0           0           0
           0           0           0           0           0           0
           0           0           0           0           0           0
           0           0
RotTr to input orientation                 R   N=          12
 -1.62233187E-01 -4.28807614E-01  8.88709415E-01  7.98124184E-01 -5.86627304E-01
 -1.37354261E-01  5.80239761E-01  6.87017057E-01  4.37412144E-01 -1.84301911E+00
  9.13946570E-01  2.34853445E-01
Number of contracted shells                I               90
Number of primitive shells                 I              195
Pure/Cartesian d shells                    I                0
Pure/Cartesian f shells                    I                0
Highest angular momentum                   I                3
Largest degree of contraction              I                8
Shell types                                I   N=          90
           0           0           0           0           0           1
           1           1           1           1          -2          -2
          -2          -3           0           0           0           0
           0           1           1           1           1           1
          -2          -2          -2          -3           0           0
           0           0           0           1           1           1
           1           1          -2          -2          -2          -3
           0           0           0           0           0           0
           1           1           1           1           1          -2
          -2          -2          -2          -3           0           0
           0           0           0           0           1           1
           1           1           1          -2          -2          -2
          -2          -3           0           0           0           0
           0           0           1           1           1           1
           1          -2          -2          -2          -2          -3
Number of primitives per shell             I   N=          90
           7           3           2           1           1           5
           1           1           1           1           1           1
           1           1           7           3           2           1
           1           5           1           1           1           1
           1           1           1           1           7           3
           2           1           1           5           1           1
           1           1           1           1           1           1
           8           4           2           1           1           1
           6           3           1           1           1           5
           1           1           1           1           8           4
           2           1           1           1           6           3
           1           1           1           5           1           1
           1           1           8           4           2           1
           1           1           6           3           1           1
           1           5           1           1           1           1
Shell to atom map                          I   N=          90
           1           1           1           1           1           1
           1           1           1           1           1           1
           1           1           2           2           2           2
           2           2           2           2           2           2
           2           2           2           2           3           3
           3           3           3           3           3           3
           3           3           3           3           3           3
           4           4           4           4           4           4
           4           4           4           4           4           4
           4           4           4           4           5           5
           5           5           5           5           5           5
           5           5           5           5           5           5
           5           5           6           6           6           6
           6           6           6           6           6           6
           6           6           6           6           6           6
Primitive exponents                        R   N=         195
  3.77925508E+04  5.66806822E+03  1.28985828E+03  3.64865960E+02  1.18576315E+02
  4.20248676E+01  1.54995016E+01  7.52080266E+01  2.30314090E+01  3.63487976E+00
  1.60650500E+00  7.61033946E-01  1.65567088E-01  6.00415771E-02  4.52523032E+02
  1.07081950E+02  3.41310213E+01  1.25870374E+01  4.98119197E+00  2.00703509E+00
  8.00837144E-01  2.01789275E-01  5.78955504E-02  1.57000000E+00  3.33000000E-01
  1.11000000E-01  2.44000000E-01  3.77925508E+04  5.66806822E+03  1.28985828E+03
  3.64865960E+02  1.18576315E+02  4.20248676E+01  1.54995016E+01  7.52080266E+01
  2.30314090E+01  3.63487976E+00  1.60650500E+00  7.61033946E-01  1.65567088E-01
  6.00415771E-02  4.52523032E+02  1.07081950E+02  3.41310213E+01  1.25870374E+01
  4.98119197E+00  2.00703509E+00  8.00837144E-01  2.01789275E-01  5.78955504E-02
  1.57000000E+00  3.33000000E-01  1.11000000E-01  2.44000000E-01  3.77925508E+04
  5.66806822E+03  1.28985828E+03  3.64865960E+02  1.18576315E+02  4.20248676E+01
  1.54995016E+01  7.52080266E+01  2.30314090E+01  3.63487976E+00  1.60650500E+00
  7.61033946E-01  1.65567088E-01  6.00415771E-02  4.52523032E+02  1.07081950E+02
  3.41310213E+01  1.25870374E+01  4.98119197E+00  2.00703509E+00  8.00837144E-01
  2.01789275E-01  5.78955504E-02  1.57000000E+00  3.33000000E-01  1.11000000E-01
  2.44000000E-01  4.35548663E+05  6.52895890E+04  1.48587843E+04  4.20597347E+03
  1.36964164E+03  4.92303489E+02  1.91419232E+02  7.58405587E+01  4.74308106E+02
  1.47102976E+02  2.39825994E+01  1.02982301E+01  1.60503814E+01  2.69884688E+00
  1.14285887E+00  2.02176523E-01  7.19801520E-02  2.43201711E+03  5.76120496E+02
  1.85115844E+02  6.92465726E+01  2.78181078E+01  1.14202299E+01  4.28196615E+01
  6.38859010E+00  2.66989933E+00  1.07817838E+00  2.27965594E-01  6.28362348E-02
  1.03923318E+02  3.03710944E+01  1.08720781E+01  4.15491380E+00  1.53456591E+00
  5.11142638E-01  3.06220000E-01  1.13913090E-01  3.09960950E-01  4.35548663E+05
  6.52895890E+04  1.48587843E+04  4.20597347E+03  1.36964164E+03  4.92303489E+02
  1.91419232E+02  7.58405587E+01  4.74308106E+02  1.47102976E+02  2.39825994E+01
  1.02982301E+01  1.60503814E+01  2.69884688E+00  1.14285887E+00  2.02176523E-01
  7.19801520E-02  2.43201711E+03  5.76120496E+02  1.85115844E+02  6.92465726E+01
  2.78181078E+01  1.14202299E+01  4.28196615E+01  6.38859010E+00  2.66989933E+00
  1.07817838E+00  2.27965594E-01  6.28362348E-02  1.03923318E+02  3.03710944E+01
  1.08720781E+01  4.15491380E+00  1.53456591E+00  5.11142638E-01  3.06220000E-01
  1.13913090E-01  3.09960950E-01  4.35548663E+05  6.52895890E+04  1.48587843E+04
  4.20597347E+03  1.36964164E+03  4.92303489E+02  1.91419232E+02  7.58405587E+01
  4.74308106E+02  1.47102976E+02  2.39825994E+01  1.02982301E+01  1.60503814E+01
  2.69884688E+00  1.14285887E+00  2.02176523E-01  7.19801520E-02  2.43201711E+03
  5.76120496E+02  1.85115844E+02  6.92465726E+01  2.78181078E+01  1.14202299E+01
  4.28196615E+01  6.38859010E+00  2.66989933E+00  1.07817838E+00  2.27965594E-01
  6.28362348E-02  1.03923318E+02  3.03710944E+01  1.08720781E+01  4.15491380E+00
  1.53456591E+00  5.11142638E-01  3.06220000E-01  1.13913090E-01  3.09960950E-01
Contraction coefficients                   R   N=         195
  5.62200334E-04  4.34531570E-03  2.23025562E-02  8.67482527E-02  2.48576657E-01
  4.52935868E-01  3.27949711E-01  6.40930202E-02  2.92677650E-01 -1.14021343E+00
  7.36842475E-01  2.83254587E-01  1.00000000E+00  1.00000000E+00  2.88041731E-03
  2.31430364E-02  1.08702002E-01  3.35294482E-01  6.49701640E-01  1.00000000E+00
  1.00000000E+00  1.00000000E+00  1.00000000E+00  1.00000000E+00  1.00000000E+00
  1.00000000E+00  1.00000000E+00  5.62200334E-04  4.34531570E-03  2.23025562E-02
  8.67482527E-02  2.48576657E-01  4.52935868E-01  3.27949711E-01  6.40930202E-02
  2.92677650E-01 -1.14021343E+00  7.36842475E-01  2.83254587E-01  1.00000000E+00
  1.00000000E+00  2.88041731E-03  2.31430364E-02  1.08702002E-01  3.35294482E-01
  6.49701640E-01  1.00000000E+00  1.00000000E+00  1.00000000E+00  1.00000000E+00
  1.00000000E+00  1.00000000E+00  1.00000000E+00  1.00000000E+00  5.62200334E-04
  4.34531570E-03  2.23025562E-02  8.67482527E-02  2.48576657E-01  4.52935868E-01
  3.27949711E-01  6.40930202E-02  2.92677650E-01 -1.14021343E+00  7.36842475E-01
  2.83254587E-01  1.00000000E+00  1.00000000E+00  2.88041731E-03  2.31430364E-02
  1.08702002E-01  3.35294482E-01  6.49701640E-01  1.00000000E+00  1.00000000E+00
  1.00000000E+00  1.00000000E+00  1.00000000E+00  1.00000000E+00  1.00000000E+00
  1.00000000E+00  2.36168083E-04  1.83123810E-03  9.52527955E-03  3.87549681E-02
  1.26457974E-01  3.01376378E-01  4.34895715E-01  2.32532968E-01 -2.52908475E-02
 -1.19671893E-01  5.56438264E-01  5.32644377E-01 -3.87067741E-01  1.17744492E+00
  1.00000000E+00  1.00000000E+00  1.00000000E+00  2.52493446E-03  2.06440589E-02
  9.82325341E-02  2.89080942E-01  4.77190029E-01  2.89266329E-01 -2.28881167E-02
  3.73895363E-01  6.82359176E-01  1.00000000E+00  1.00000000E+00  1.00000000E+00
  1.26579672E-02  8.12894638E-02  2.59517580E-01  4.45153296E-01  4.50742031E-01
  1.00000000E+00  1.00000000E+00  1.00000000E+00  1.00000000E+00  2.36168083E-04
  1.83123810E-03  9.52527955E-03  3.87549681E-02  1.26457974E-01  3.01376378E-01
  4.34895715E-01  2.32532968E-01 -2.52908475E-02 -1.19671893E-01  5.56438264E-01
  5.32644377E-01 -3.87067741E-01  1.17744492E+00  1.00000000E+00  1.00000000E+00
  1.00000000E+00  2.52493446E-03  2.06440589E-02  9.82325341E-02  2.89080942E-01
  4.77190029E-01  2.89266329E-01 -2.28881167E-02  3.73895363E-01  6.82359176E-01
  1.00000000E+00  1.00000000E+00  1.00000000E+00  1.26579672E-02  8.12894638E-02
  2.59517580E-01  4.45153296E-01  4.50742031E-01  1.00000000E+00  1.00000000E+00
  1.00000000E+00  1.00000000E+00  2.36168083E-04  1.83123810E-03  9.52527955E-03
  3.87549681E-02  1.26457974E-01  3.01376378E-01  4.34895715E-01  2.32532968E-01
 -2.52908475E-02 -1.19671893E-01  5.56438264E-01  5.32644377E-01 -3.87067741E-01
  1.17744492E+00  1.00000000E+00  1.00000000E+00  1.00000000E+00  2.52493446E-03
  2.06440589E-02  9.82325341E-02  2.89080942E-01  4.77190029E-01  2.89266329E-01
 -2.28881167E-02  3.73895363E-01  6.82359176E-01  1.00000000E+00  1.00000000E+00
  1.00000000E+00  1.26579672E-02  8.12894638E-02  2.59517580E-01  4.45153296E-01
  4.50742031E-01  1.00000000E+00  1.00000000E+00  1.00000000E+00  1.00000000E+00
Coordinates of each shell                  R   N=         270
  2.68358978E+00  2.11632522E+00  2.44860087E+00  2.68358978E+00  2.11632522E+00
  2.44860087E+00  2.68358978E+00  2.11632522E+00  2.44860087E+00  2.68358978E+00
  2.11632522E+00  2.44860087E+00  2.68358978E+00  2.11632522E+00  2.44860087E+00
  2.68358978E+00  2.11632522E+00  2.44860087E+00  2.68358978E+00  2.11632522E+00
  2.44860087E+00  2.68358978E+00  2.11632522E+00  2.44860087E+00  2.68358978E+00
  2.11632522E+00  2.44860087E+00  2.68358978E+00  2.11632522E+00  2.44860087E+00
  2.68358978E+00  2.11632522E+00  2.44860087E+00  2.68358978E+00  2.11632522E+00
  2.44860087E+00  2.68358978E+00  2.11632522E+00  2.44860087E+00  2.68358978E+00
  2.11632522E+00  2.44860087E+00 -2.64840047E+00  2.13540649E+00  2.45823814E+00
 -2.64840047E+00  2.13540649E+00  2.45823814E+00 -2.64840047E+00  2.13540649E+00
  2.45823814E+00 -2.64840047E+00  2.13540649E+00  2.45823814E+00 -2.64840047E+00
  2.13540649E+00  2.45823814E+00 -2.64840047E+00  2.13540649E+00  2.45823814E+00
 -2.64840047E+00  2.13540649E+00  2.45823814E+00 -2.64840047E+00  2.13540649E+00
  2.45823814E+00 -2.64840047E+00  2.13540649E+00  2.45823814E+00 -2.64840047E+00
  2.13540649E+00  2.45823814E+00 -2.64840047E+00  2.13540649E+00  2.45823814E+00
 -2.64840047E+00  2.13540649E+00  2.45823814E+00 -2.64840047E+00  2.13540649E+00
  2.45823814E+00 -2.64840047E+00  2.13540649E+00  2.45823814E+00  3.30837727E-02
  4.26957660E+00 -9.17467239E-01  3.30837727E-02  4.26957660E+00 -9.17467239E-01
  3.30837727E-02  4.26957660E+00 -9.17467239E-01  3.30837727E-02  4.26957660E+00
 -9.17467239E-01  3.30837727E-02  4.26957660E+00 -9.17467239E-01  3.30837727E-02
  4.26957660E+00 -9.17467239E-01  3.30837727E-02  4.26957660E+00 -9.17467239E-01
  3.30837727E-02  4.26957660E+00 -9.17467239E-01  3.30837727E-02  4.26957660E+00
 -9.17467239E-01  3.30837727E-02  4.26957660E+00 -9.17467239E-01  3.30837727E-02
  4.26957660E+00 -9.17467239E-01  3.30837727E-02  4.26957660E+00 -9.17467239E-01
  3.30837727E-02  4.26957660E+00 -9.17467239E-01  3.30837727E-02  4.26957660E+00
 -9.17467239E-01  2.98541845E+00 -4.91229833E-01 -1.66161171E+00  2.98541845E+00
 -4.91229833E-01 -1.66161171E+00  2.98541845E+00 -4.91229833E-01 -1.66161171E+00
  2.98541845E+00 -4.91229833E-01 -1.66161171E+00  2.98541845E+00 -4.91229833E-01
 -1.66161171E+00  2.98541845E+00 -4.91229833E-01 -1.66161171E+00  2.98541845E+00
 -4.91229833E-01 -1.66161171E+00  2.98541845E+00 -4.91229833E-01 -1.66161171E+00
  2.98541845E+00 -4.91229833E-01 -1.66161171E+00  2.98541845E+00 -4.91229833E-01
 -1.66161171E+00  2.98541845E+00 -4.91229833E-01 -1.66161171E+00  2.98541845E+00
 -4.91229833E-01 -1.66161171E+00  2.98541845E+00 -4.91229833E-01 -1.66161171E+00
  2.98541845E+00 -4.91229833E-01 -1.66161171E+00  2.98541845E+00 -4.91229833E-01
 -1.66161171E+00  2.98541845E+00 -4.91229833E-01 -1.66161171E+00 -3.00558703E+00
 -4.57495452E-01 -1.65085168E+00 -3.00558703E+00 -4.57495452E-01 -1.65085168E+00
 -3.00558703E+00 -4.57495452E-01 -1.65085168E+00 -3.00558703E+00 -4.57495452E-01
 -1.65085168E+00 -3.00558703E+00 -4.57495452E-01 -1.65085168E+00 -3.00558703E+00
 -4.57495452E-01 -1.65085168E+00 -3.00558703E+00 -4.57495452E-01 -1.65085168E+00
 -3.00558703E+00 -4.57495452E-01 -1.65085168E+00 -3.00558703E+00 -4.57495452E-01
 -1.65085168E+00 -3.00558703E+00 -4.57495452E-01 -1.65085168E+00 -3.00558703E+00
 -4.57495452E-01 -1.65085168E+00 -3.00558703E+00 -4.57495452E-01 -1.65085168E+00
 -3.00558703E+00 -4.57495452E-01 -1.65085168E+00 -3.00558703E+00 -4.57495452E-01
 -1.65085168E+00 -3.00558703E+00 -4.57495452E-01 -1.65085168E+00 -3.00558703E+00
 -4.57495452E-01 -1.65085168E+00 -8.46206422E-03 -2.62472659E+00  1.63950103E+00
 -8.46206422E-03 -2.62472659E+00  1.63950103E+00 -8.46206422E-03 -2.62472659E+00
  1.63950103E+00 -8.46206422E-03 -2.62472659E+00  1.63950103E+00 -8.46206422E-03
 -2.62472659E+00  1.63950103E+00 -8.46206422E-03 -2.62472659E+00  1.63950103E+00
 -8.46206422E-03 -2.62472659E+00  1.63950103E+00 -8.46206422E-03 -2.62472659E+00
  1.63950103E+00 -8.46206422E-03 -2.62472659E+00  1.63950103E+00 -8.46206422E-03
 -2.62472659E+00  1.63950103E+00 -8.46206422E-03 -2.62472659E+00  1.63950103E+00
 -8.46206422E-03 -2.62472659E+00  1.63950103E+00 -8.46206422E-03 -2.62472659E+00
  1.63950103E+00 -8.46206422E-03 -2.62472659E+00  1.63950103E+00 -8.46206422E-03
 -2.62472659E+00  1.63950103E+00 -8.46206422E-03 -2.62472659E+00  1.63950103E+00
Num ILSW                                   I              100
ILSW                                       I   N=         100
           0           0           0           0           2           0
           0           0           0           0        4235          -1
           5           0           0           0           0           0
           0           0           0           0           0           0
           1           0           0           0           0           0
           0           0      100000           0          -1           0
           0           0           0           0           0           0
           0           0           0           1           0           0
           0 -2000000000           1           0           0           0
           0           0           4          52           0           0
           0           0          54           0           0           0
           0           0           0           6           0           1
           0           0           0           0           0           0
           0           0           0           0           0           0
           0           0           0           0           0           0
           0           0           0           0           0           0
           0           0           0           0
Num RLSW                                   I               52
RLSW                                       R   N=          52
  1.00000000E+00  1.00000000E+00  1.00000000E+00  1.00000000E+00  2.70000000E-01
  0.00000000E+00  0.00000000E+00  1.00000000E+00  0.00000000E+00  0.00000000E+00
  0.00000000E+00  0.00000000E+00  1.00000000E+00  0.00000000E+00  0.00000000E+00
  0.00000000E+00  0.00000000E+00  1.00000000E+00  0.00000000E+00  0.00000000E+00
  0.00000000E+00  0.00000000E+00  1.00000000E+00  0.00000000E+00  0.00000000E+00
  0.00000000E+00  0.00000000E+00  1.00000000E+00  0.00000000E+00  0.00000000E+00
  0.00000000E+00  0.00000000E+00  1.00000000E+00  0.00000000E+00  0.00000000E+00
  0.00000000E+00  0.00000000E+00  0.00000000E+00  1.00000000E+00  1.00000000E+00
  0.00000000E+00  1.00000000E+00  0.00000000E+00  0.00000000E+00  0.00000000E+00
  0.00000000E+00  0.00000000E+00  0.00000000E+00  0.00000000E+00  0.00000000E+00
  0.00000000E+00  0.00000000E+00
ECP-MxAtEC                                 I           250000
ECP-MaxLECP                                I               10
ECP-MaxAtL                                 I          2250000
ECP-MxTECP                                 I         11250000
ECP-LenNCZ                                 I                0
ECP-KFirst                                 I   N=          60
           0           0           0           0           0           0
           0           0           0           0           0           0
           0           0           0           0           0           0
           0           0           0           0           0           0
           0           0           0           0           0           0
           0           0           0           0           0           0
           0           0           0           0           0           0
           0           0           0           0           0           0
           0           0           0           0           0           0
           0           0           0           0           0           0
ECP-KLast                                  I   N=          60
           0           0           0           0           0           0
           0           0           0           0           0           0
           0           0           0           0           0           0
           0           0           0           0           0           0
           0           0           0           0           0           0
           0           0           0           0           0           0
           0           0           0           0           0           0
           0           0           0           0           0           0
           0           0           0           0           0           0
           0           0           0           0           0           0
ECP-LMax                                   I   N=           6
           0           0           0           0           0           0
ECP-LPSkip                                 I   N=           6
           1           1           1           1           1           1
ECP-RNFroz                                 R   N=           6
  0.00000000E+00  0.00000000E+00  0.00000000E+00  0.00000000E+00  0.00000000E+00
  0.00000000E+00
ECP-NLP                                    I                0
ECP-CLP1                                   R      0.000000000000000E+00
ECP-CLP2                                   R      0.000000000000000E+00
ECP-ZLP                                    R      0.000000000000000E+00
MxBond                                     I                4
NBond                                      I   N=           6
           4           4           4           3           3           4
IBond                                      I   N=          24
           2           3           4           6           1           3
           5           6           1           2           4           5
           1           3           6           0           2           3
           6           0           1           2           4           5
RBond                                      R   N=          24
  1.00000000E+00  1.00000000E+00  1.00000000E+00  1.00000000E+00  1.00000000E+00
  1.00000000E+00  1.00000000E+00  1.00000000E+00  1.00000000E+00  1.00000000E+00
  1.00000000E+00  1.00000000E+00  1.00000000E+00  1.00000000E+00  1.00000000E+00
  0.00000000E+00  1.00000000E+00  1.00000000E+00  1.00000000E+00  0.00000000E+00
  1.00000000E+00  1.00000000E+00  1.00000000E+00  1.00000000E+00
Virial Ratio                               R      2.001461407630521E+00
SCF Energy                                 R     -6.501778379766755E+03
Total Energy                               R     -6.501778379766755E+03
RMS Density                                R      4.489221300435198E-09
Job Status                                 I                1
Nuclear derivative order                   I                0
External E-field                           R   N=          35
  0.00000000E+00  0.00000000E+00  0.00000000E+00  0.00000000E+00  0.00000000E+00
  0.00000000E+00  0.00000000E+00  0.00000000E+00  0.00000000E+00  0.00000000E+00
  0.00000000E+00  0.00000000E+00  0.00000000E+00  0.00000000E+00  0.00000000E+00
  0.00000000E+00  0.00000000E+00  0.00000000E+00  0.00000000E+00  0.00000000E+00
  0.00000000E+00  0.00000000E+00  0.00000000E+00  0.00000000E+00  0.00000000E+00
  0.00000000E+00  0.00000000E+00  0.00000000E+00  0.00000000E+00  0.00000000E+00
  0.00000000E+00  0.00000000E+00  0.00000000E+00  0.00000000E+00  0.00000000E+00
IOpCl                                      I                0
IROHF                                      I                0
Alpha Orbital Energies                     R   N=         270
 -3.72855127E+02 -3.72854930E+02 -3.72854524E+02 -5.61710417E+01 -5.61710299E+01
 -5.61710010E+01 -4.61802737E+01 -4.61800880E+01 -4.61797807E+01 -4.08367605E+01
 -4.08365877E+01 -4.08365743E+01 -4.08364043E+01 -4.08363611E+01 -4.08360803E+01
 -4.08359951E+01 -4.08358904E+01 -4.08355667E+01 -5.61231028E+00 -5.61212889E+00
 -5.61184857E+00 -4.21259428E+00 -4.21251875E+00 -4.21231834E+00 -3.85231726E+00
 -3.85218327E+00 -3.85202175E+00 -3.85199991E+00 -3.85182021E+00 -3.85114628E+00
 -3.85016283E+00 -3.84997834E+00 -3.84965665E+00 -2.73099549E+00 -2.73077437E+00
 -2.73032764E+00 -2.73027196E+00 -2.73016880E+00 -2.73002005E+00 -2.72787431E+00
 -2.72777545E+00 -2.72751007E+00 -8.61188580E-01 -8.60714012E-01 -8.58416893E-01
 -8.57930568E-01 -8.56703659E-01 -8.55765307E-01 -8.55694671E-01 -8.55049344E-01
 -8.54373378E-01 -8.54038186E-01 -8.53179721E-01 -8.52761084E-01 -8.52477601E-01
 -8.52392120E-01 -8.50312448E-01 -5.08478704E-01 -3.94126225E-01 -3.85021618E-01
 -3.35552048E-01 -2.57099441E-01 -2.56706510E-01 -2.03890000E-01 -1.90768092E-01
 -1.89068579E-01 -1.18445063E-01 -9.27411890E-02 -9.01876045E-02 -8.28906271E-02
 -5.01688588E-02 -2.03746073E-02 -1.67805893E-02  9.38119075E-04  1.76724647E-03
  1.18721504E-02  4.21660902E-02  4.44245379E-02  7.00380875E-02  7.09995273E-02
  7.34914870E-02  8.30420734E-02  8.67745756E-02  1.11675884E-01  1.16386882E-01
  1.22153001E-01  1.24780809E-01  1.32406301E-01  1.36297935E-01  1.38081774E-01
  1.41974154E-01  1.51166151E-01  1.66898734E-01  1.72321755E-01  1.82067631E-01
  2.02311270E-01  2.03309825E-01  2.05881144E-01  2.14148581E-01  2.24363070E-01
  2.25132559E-01  2.30695542E-01  2.39424044E-01  2.45245343E-01  2.46884863E-01
  2.50267757E-01  2.61817907E-01  2.63785709E-01  2.69209130E-01  2.72663924E-01
  2.79107966E-01  2.84587212E-01  3.13575471E-01  3.16398863E-01  3.61588182E-01
  3.64486386E-01  3.76958799E-01  3.81532032E-01  3.86623427E-01  3.92588616E-01
  3.94273274E-01  4.02925183E-01  4.18375078E-01  4.22929474E-01  4.23823343E-01
  4.46337574E-01  4.48075177E-01  4.57272368E-01  4.58724033E-01  4.83903967E-01
  4.89732045E-01  4.95283347E-01  5.02357666E-01  5.11153303E-01  5.13640561E-01
  5.37293423E-01  5.77470820E-01  5.81451600E-01  6.20288670E-01  6.62012782E-01
  6.64866066E-01  6.67168546E-01  6.78275168E-01  6.92225000E-01  6.95457026E-01
  6.99965264E-01  7.04036363E-01  7.22558630E-01  7.37493302E-01  7.47257600E-01
  7.67890144E-01  7.76169769E-01  7.83919138E-01  7.91219886E-01  7.97684569E-01
  8.14016767E-01  8.23735922E-01  8.31973802E-01  8.43496855E-01  8.49741437E-01
  8.57607332E-01  8.65728632E-01  8.71861237E-01  8.75791023E-01  8.89710204E-01
  8.99171217E-01  9.04979742E-01  9.28216380E-01  9.34365126E-01  9.55106467E-01
  9.60468040E-01  9.77312550E-01  9.92773457E-01  1.00375477E+00  1.01936753E+00
  1.02512460E+00  1.04842063E+00  1.05237298E+00  1.05555525E+00  1.06347572E+00
  1.06833398E+00  1.07155530E+00  1.08182448E+00  1.08237887E+00  1.09281349E+00
  1.11531788E+00  1.11714056E+00  1.14114700E+00  1.15767494E+00  1.16065285E+00
  1.17761276E+00  1.18522987E+00  1.19473979E+00  1.20068917E+00  1.21949084E+00
  1.22058642E+00  1.23602265E+00  1.26231679E+00  1.27573136E+00  1.28874757E+00
  1.31801724E+00  1.32048536E+00  1.35777448E+00  1.35851571E+00  1.38792470E+00
  1.41307300E+00  1.50283175E+00  1.92816867E+00  1.97614667E+00  2.00643389E+00
  2.01416139E+00  2.13988838E+00  2.15089959E+00  2.23321143E+00  2.25223355E+00
  2.26160140E+00  2.27451304E+00  2.28396645E+00  2.29567003E+00  2.29983543E+00